
                                 *****************
                                 * O   R   C   A *
                                 *****************

                                            #,                                       
                                            ###                                      
                                            ####                                     
                                            #####                                    
                                            ######                                   
                                           ########,                                 
                                     ,,################,,,,,                         
                               ,,#################################,,                 
                          ,,##########################################,,             
                       ,#########################################, ''#####,          
                    ,#############################################,,   '####,        
                  ,##################################################,,,,####,       
                ,###########''''           ''''###############################       
              ,#####''   ,,,,##########,,,,          '''####'''          '####       
            ,##' ,,,,###########################,,,                        '##       
           ' ,,###''''                  '''############,,,                           
         ,,##''                                '''############,,,,        ,,,,,,###''
      ,#''                                            '''#######################'''  
     '                                                          ''''####''''         
             ,#######,   #######,   ,#######,      ##                                
            ,#'     '#,  ##    ##  ,#'     '#,    #''#        ,####,    ,#,          
            ##       ##  ##   ,#'  ##            #'  '#       #'       ,# #          
            ##       ##  #######   ##           ,######,      #####,      #          
            '#,     ,#'  ##    ##  '#,     ,#' ,#      #,     #,   #      #          
             '#######'   ##     ##  '#######'  #'      '#     '####' #    #          



                #########################################################
                #                        -***-                          #
                #          Department of theory and spectroscopy        #
                #                                                       #
                #                      Frank Neese                      #
                #                                                       #
                #     Directorship, Architecture, Infrastructure        #
                #                    SHARK, DRIVERS                     #
                #        Core code/Algorithms in most modules           #
                #                                                       #
                #        Max Planck Institute fuer Kohlenforschung      #
                #                Kaiser Wilhelm Platz 1                 #
                #                 D-45470 Muelheim/Ruhr                 #
                #                      Germany                          #
                #                                                       #
                #                  All rights reserved                  #
                #                        -***-                          #
                #########################################################


                         Program Version 6.1.1  -  RELEASE   -
                                (GIT: $487d211cc3$)
                          ($2025-11-21 10:33:24 +0100$)


 With contributions from (in alphabetic order):
[Max-Planck-Institut fuer Kohlenforschung]                               
  Daniel Aravena         : Magnetic Suceptibility                        
  Michael Atanasov       : Ab Initio Ligand Field Theory (pilot matlab implementation)
  Alexander A. Auer      : GIAO ZORA, VPT2 properties, NMR spectrum      
  Ute Becker             : All parallelization in ORCA, NUMFREQ, NUMCALC 
  Giovanni Bistoni       : ED, misc. LED, open-shell LED, HFLD           
  Dmytro Bykov           : pre 5.0 version of the SCF Hessian            
  Marcos Casanova-Páez   : Triplet and SCS-CIS(D). UHF-(DLPNO)-IP/EA/STEOM-CCSD. UHF-CVS-IP/STEOM-CCSD   
  Vijay G. Chilkuri      : MRCI spin determinant printing, contributions to CSF-ICE 
  Pauline Colinet        : FMM embedding                                 
  Dipayan Datta          : RHF DLPNO-CCSD density                        
  Achintya Kumar Dutta   : EOM-CC, STEOM-CC                              
  Nicolas Foglia         : Exact transition moments, OPA infrastructure, MCD improvements    
  Dmitry Ganyushin       : Spin-Orbit,Spin-Spin,Magnetic field MRCI      
  Miquel Garcia-Rates    : C-PCM and meta-GGA Hessian, CCSD/C-PCM, Gaussian charge scheme 
  Tiago L. C. Gouveia    : GS-ROHF, GS-ROCIS                             
  Yang Guo               : DLPNO-NEVPT2, F12-NEVPT2, CIM, IAO-localization        
  Andreas Hansen         : Spin unrestricted coupled pair/coupled cluster methods 
  Ingolf Harden          : AUTO-CI MPn and infrastructure                
  Benjamin Helmich-Paris : MC-RPA, TRAH-(SCF,CASSCF), AVAS, COSX integrals, SCF dyn. polar., MC-PDFT, srDFT 
  Lee Huntington         : MR-EOM, pCC                                   
  Robert Izsak           : Overlap fitted RIJCOSX, COSX-SCS-MP3, EOM     
  Riya Kayal             : Wick's Theorem for AUTO-CI, AUTO-CI UHF-CCSDT 
  Emily Kempfer          : AUTO-CI RHF CISDT and CCSDT, approximate NEVPT4
  Christian Kollmar      : KDIIS, OOCD, Brueckner-CCSD(T), CCSD density, CASPT2, CASPT2-K, improved NEVPT2 
  Axel Koslowski         : Symmetry handling                             
  Simone Kossmann        : meta-GGA functionals, TD-DFT gradient, OOMP2, (MP2 Hessian; deprecated post 5.0) 
  Lucas Lang             : DCDCAS, Hyperfine gauge corrections, ICE-SOC+SSC
  Marvin Lechner         : AUTO-CI (C++ implementation), FIC-MRCC        
  Spencer Leger          : CASSCF response                               
  Dagmar Lenk            : GEPOL surface, SMD, ORCA-2-JSON               
  Dimitrios Liakos       : Extrapolation schemes; Compound Job, Property file
  Dimitrios Manganas     : Further ROCIS development; embedding schemes. LFT, Crystal Embedding 
  Dimitrios Pantazis     : SARC Basis sets                               
  Anastasios Papadopoulos: AUTO-CI, single reference methods and gradients 
  Taras Petrenko         : pre 6.0 DFT Hessian and TD-DFT gradient,  ECA, NRVS 
  Petra Pikulova         : Analytic Raman intensities                    
  Peter Pinski           : DLPNO-MP2, DLPNO-MP2 Gradient                 
  Shashank Vittal Rao    : ES-AILFT, MagRelax                            
  Christoph Reimann      : Effective Core Potentials                     
  Marius Retegan         : Local ZFS, SOC                                
  Christoph Riplinger    : Optimizer, TS searches, QM/MM, DLPNO-CCSD(T), (RO)-DLPNO pert. Triples 
  Michael Roemelt        : Original ROCIS implementation, recursive CI coupling coefficients
  Masaaki Saitow         : Open-shell DLPNO-CCSD energy and density      
  Barbara Sandhoefer     : DKH picture change effects                    
  Yorick L. A. Schmerwitz: GMF and freeze-and-release deltaSCF, NEB S-IDPP initial path                    
  Kantharuban Sivalingam : CASSCF convergence/infrastructure, NEVPT2, NEVPT3, NEVPT4(SD), FIC-MRCI and CEPA variants
  Bernardo de Souza      : ESD, SOC TD-DFT                               
  Georgi L. Stoychev     : AutoAux, RI-MP2 NMR, DLPNO-MP2 response, X2C  
  Van Anh Tran           : RI-MP2 g-tensors                              
  Willem Van den Heuvel  : Paramagnetic NMR                              
  Zikuan Wang            : NOTCH, Electric field optimization            
  Frank Wennmohs         : Technical directorship and infrastructure     
  Hang Xu                : AUTO-CI-Response properties                   
                                                                         
[FACCTs GmbH]                                                            
  Markus Bursch, Nicolas Foglia, Miquel Garcia-Rates, Ingolf Harden, Hagen Neugebauer, Anastasios Papadopoulos, 
  Christoph Riplinger, Bernardo de Souza, Georgi L. Stoychev                                                    
                                                                 
  APM, various basis sets, CI-OPT, improved COSX, DLPNO-Multilevel,           
  DOCKER, DRACO, updates on ESD, Fragmentator, GOAT, IRC, LR-CPCM, L-BFGS, MBIS, meta-GGA TD-DFT gradient, ML-optimized integration grids, 
  MM, NACMEs, nearIR, NEB, NEB-TS, NL-DFT gradient (VV10), 2- and 3-layer-ONIOM, interface openCOSMO-RS, QMMM,   
  Crystal-QMMM, RESP, rigid body optimization, SF, symmetry and pop. for TD-DFT, various functionals, SOLVATOR                                   
                                                                         
[Other institutions]                                                     
  V. Asgeirsson          : NEB                                           
  Christoph Bannwarth    : sTDA-DFT, sTD-DFT, PBEh-3c, B97-3c, D3        
  Giovanni Bistoni       : ETS/NOCV, ADLD/ADEX, COVALED                  
  Martin Brehm           : Molecular dynamics                            
  Ronald Cardenas        : ETS/NOCV                                      
  Martina Colucci        : COVALED                                       
  Sebastian Ehlert       : rSCAN, r2SCAN, r2SCAN-3c, D4, dhf basis sets  
  Marvin Friede          : D4 for Fr, Ra, Ac-Lr                          
  Lars Goerigk           : TD-DFT with DH, B97 family of functionals     
  Stefan Grimme          : VdW corrections, initial TS optimization, DFT functionals, gCP, sTDA/sTD-DF 
  Waldemar Hujo          : DFT-NL                                        
  H. Jonsson             : NEB                                           
  Holger Kruse           : gCP                                           
  Marcel Mueller         : wB97X-3c, vDZP basis set                      
  Hagen Neugebauer       : wr2SCAN, Native XTB                           
  Gianluca Regni         : ADLD/ADEX                                     
  Tobias Risthaus        : pre 6.0 range-separated hybrid DFT and stability analysis
  Lukas Wittmann         : regularized MP2, r2SCAN double-hybrids, wr2SCAN        
                                                                         
We gratefully acknowledge several colleagues who have allowed us to      
interface, adapt or use parts of their codes:                            
  Ed Valeev, F. Pavosevic, A. Kumar             : LibInt (2-el integral package), F12 methods 
  Garnet Chan, S. Sharma, J. Yang, R. Olivares  : DMRG                   
  Ulf Ekstrom                                   : XCFun DFT Library      
  Mihaly Kallay                                 : mrcc  (arbitrary order and MRCC methods)
  Frank Weinhold                                : gennbo (NPA and NBO analysis)           
  Simon Mueller                                 : openCOSMO-RS                            
  Christopher J. Cramer and Donald G. Truhlar   : smd solvation model                     
  S Lehtola, MJT Oliveira, MAL Marques          : LibXC Library                           
  Liviu Ungur et al                             : ANISO software                          


 Your calculation uses the libint2 library for the computation of 2-el integrals
 For citations please refer to: http://libint.valeyev.net

 Your ORCA version has been built with support for libXC version: 7.0.0
 For citations please refer to: https://libxc.gitlab.io

 This ORCA versions uses:
   CBLAS   interface :  Fast vector & matrix operations
   LAPACKE interface :  Fast linear algebra routines
   SCALAPACK package :  Parallel linear algebra routines
   Shared memory     :  Shared parallel matrices


  ***********************************
  * Starting time: Mon May 25 05:05:37 2026
  * Host name:     Ramas-MacBook-Pro.local
  * Process ID:    56204
  * Working dir.:  /Users/rama/Documents/aiida-test/orca_inp_from_xyz/local_run_1779665737
  ***********************************

NOTE: MaxCore=2560 MB was set to SCF,MP2,MDCI,CIPSI,MRCI,RASCI and CIS
      => If you want to overwrite this, your respective input block should be placed after the MaxCore statement
Warning: RI is on but no J-basis has been assigned. Assigning Def2/J (nothing to worry about!)
================================================================================

----- Orbital basis set information -----
Your calculation utilizes the basis: STO-3G
   H-Ne       : W. J. Hehre, R. F. Stewart and J. A. Pople, J. Chem. Phys. 2657 (1969).
   Na-Ar      : W. J. Hehre, R. Ditchfield, R. F. Stewart and J. A. Pople, J. Chem. Phys. 2769 (1970).
   K,Ca,Ga-Kr : W. J. Pietro, B. A. Levy, W. J. Hehre and R. F. Stewart, J. Am. Chem. Soc. 19, 2225 (1980).
   Sc-Zn,Y-Cd : W. J. Pietro and W. J. Hehre, J. Comp. Chem. 4, 241 (1983).

----- AuxJ basis set information -----
Your calculation utilizes the auxiliary basis: def2/J
   H-Rn: F. Weigend, Phys. Chem. Chem. Phys. 8, 1057 (2006).
   Fr-Lr: K. Eichkorn, F. Weigend, O. Treutler, R. Ahlrichs; Theor. Chem. Acc. 97, 119 (1997).

================================================================================
                                        WARNINGS
                       Please study these warnings very carefully!
================================================================================


WARNING: Geometry Optimization
  ===> : Switching off AutoStart
         For restart on a previous wavefunction, please use MOREAD

================================================================================
                                       INPUT FILE
================================================================================
NAME = orca.inp
|  1> ! pbe0 sto-3g Direct OPT FREQ
|  2> 
|  3> %maxcore 2560
|  4> %pal nprocs 4 end
|  5> 
|  6> * xyz 0 1
|  7> H      0.52880000     0.16100000     0.93590000 
|  8> C      0.00000000     0.00000000     0.00000000 
|  9> H      0.20510000     0.82400000    -0.67860000 
| 10> H      0.33450000    -0.93140000    -0.44960000 
| 11> H     -1.06850000    -0.05370000     0.19210000 
| 12> *
| 13> 
| 14>                          ****END OF INPUT****
================================================================================

                       *****************************
                       * Geometry Optimization Run *
                       *****************************

Geometry optimization settings:
Update method            Update   .... BFGS
Choice of coordinates    CoordSys .... (2022) Redundant Internals
Initial Hessian          InHess   .... Almloef's Model
Max. no of cycles        MaxIter  .... 50

Convergence Tolerances:
Energy Change            TolE     ....  5.0000e-06 Eh
Max. Gradient            TolMAXG  ....  3.0000e-04 Eh/bohr
RMS Gradient             TolRMSG  ....  1.0000e-04 Eh/bohr
Max. Displacement        TolMAXD  ....  4.0000e-03 bohr
RMS Displacement         TolRMSD  ....  2.0000e-03 bohr
Strict Convergence                .... False

------------------------------------------------------------------------------
                        ORCA OPTIMIZATION COORDINATE SETUP
------------------------------------------------------------------------------

The optimization will be done in redundant internal coordinates (2022)
Making redundant internal coordinates   ...  (2022 redundants) done
Evaluating the initial hessian          ...  (Almloef) done
Evaluating the coordinates              ...  done
Calculating the B-matrix                .... done
Calculating the G-matrix                .... done
The number of degrees of freedom        ....   10

    -----------------------------------------------------------------
                    Redundant Internal Coordinates


    -----------------------------------------------------------------
         Definition                    Initial Value    Approx d2E/dq
    -----------------------------------------------------------------
      1. B(C   1,H   0)                  1.0869         0.364158   
      2. B(H   2,C   1)                  1.0870         0.364108   
      3. B(H   3,C   1)                  1.0870         0.364111   
      4. B(H   4,C   1)                  1.0870         0.364146   
      5. A(H   0,C   1,H   3)          109.4722         0.291860   
      6. A(H   2,C   1,H   3)          109.4673         0.291854   
      7. A(H   0,C   1,H   4)          109.4743         0.291864   
      8. A(H   2,C   1,H   4)          109.4671         0.291858   
      9. A(H   3,C   1,H   4)          109.4676         0.291858   
     10. A(H   0,C   1,H   2)          109.4788         0.291860   
    -----------------------------------------------------------------

Number of atoms                         .... 5
Number of degrees of freedom            .... 10


         *************************************************************
         *                GEOMETRY OPTIMIZATION CYCLE   1            *
         *************************************************************
---------------------------------
CARTESIAN COORDINATES (ANGSTROEM)
---------------------------------
  H      0.528800    0.161000    0.935900
  C      0.000000    0.000000    0.000000
  H      0.205100    0.824000   -0.678600
  H      0.334500   -0.931400   -0.449600
  H     -1.068500   -0.053700    0.192100

----------------------------
CARTESIAN COORDINATES (A.U.)
----------------------------
  NO LB      ZA    FRAG     MASS         X           Y           Z
   0 H     1.0000    0     1.008    0.999287    0.304246    1.768595
   1 C     6.0000    0    12.011    0.000000    0.000000    0.000000
   2 H     1.0000    0     1.008    0.387583    1.557134   -1.282368
   3 H     1.0000    0     1.008    0.632113   -1.760091   -0.849621
   4 H     1.0000    0     1.008   -2.019172   -0.101478    0.363016

--------------------------------
INTERNAL COORDINATES (ANGSTROEM)
--------------------------------
 H      0   0   0     0.000000000000     0.00000000     0.00000000
 C      1   0   0     1.086949515847     0.00000000     0.00000000
 H      2   1   0     1.086986646652   109.47881566     0.00000000
 H      2   1   3     1.086984990697   109.47224096   120.00042779
 H      2   1   3     1.086958301868   109.47426454   239.99847195

---------------------------
INTERNAL COORDINATES (A.U.)
---------------------------
 H      0   0   0     0.000000000000     0.00000000     0.00000000
 C      1   0   0     2.054036906349     0.00000000     0.00000000
 H      2   1   0     2.054107073402   109.47881566     0.00000000
 H      2   1   3     2.054103944100   109.47224096   120.00042779
 H      2   1   3     2.054053509523   109.47426454   239.99847195

---------------------
BASIS SET INFORMATION
---------------------
There are 2 groups of distinct atoms

 Group   1 Type H   : 3s contracted to 1s pattern {3}
 Group   2 Type C   : 6s3p contracted to 2s1p pattern {33/3}

Atom   0H    basis set group =>   1
Atom   1C    basis set group =>   2
Atom   2H    basis set group =>   1
Atom   3H    basis set group =>   1
Atom   4H    basis set group =>   1
---------------------------------
AUXILIARY/J BASIS SET INFORMATION
---------------------------------
There are 2 groups of distinct atoms

 Group   1 Type H   : 5s2p1d contracted to 3s1p1d pattern {311/2/1}
 Group   2 Type C   : 12s5p4d2f1g contracted to 6s4p3d1f1g pattern {711111/2111/211/2/1}

Atom   0H    basis set group =>   1
Atom   1C    basis set group =>   2
Atom   2H    basis set group =>   1
Atom   3H    basis set group =>   1
Atom   4H    basis set group =>   1


           ************************************************************
           *        Program running with 4 parallel MPI-processes     *
           *              working on a common directory               *
           ************************************************************
------------------------------------------------------------------------------
                             ORCA STARTUP CALCULATIONS
                           -- RI-GTO INTEGRALS CHOSEN --
------------------------------------------------------------------------------
------------------------------------------------------------------------------
                   ___                                                        
                  /   \      - P O W E R E D   B Y -                         
                 /     \                                                     
                 |  |  |   _    _      __       _____    __    __             
                 |  |  |  | |  | |    /  \     |  _  \  |  |  /  |          
                  \  \/   | |  | |   /    \    | | | |  |  | /  /          
                 / \  \   | |__| |  /  /\  \   | |_| |  |  |/  /          
                |  |  |   |  __  | /  /__\  \  |    /   |      \           
                |  |  |   | |  | | |   __   |  |    \   |  |\   \          
                \     /   | |  | | |  |  |  |  | |\  \  |  | \   \       
                 \___/    |_|  |_| |__|  |__|  |_| \__\ |__|  \__/        
                                                                              
                      - O R C A' S   B I G   F R I E N D -                    
                                      &                                       
                       - I N T E G R A L  F E E D E R -                       
                                                                              
 v1 FN, 2020, v2 2021, v3 2022-2024                                           
------------------------------------------------------------------------------


----------------------
SHARK INTEGRAL PACKAGE
----------------------

Number of atoms                             ...      5
Number of basis functions                   ...      9
Number of shells                            ...      7
Maximum angular momentum                    ...      1
Integral batch strategy                     ... SHARK/LIBINT Hybrid
RI-J (if used) integral strategy            ... SPLIT-RIJ (Revised 2003 algorithm where possible)
Printlevel                                  ...      1
Contraction scheme used                     ... SEGMENTED contraction
Prescreening option                         ... SCHWARTZ
   Thresh                                   ... 2.500e-11
   Tcut                                     ... 2.500e-12
   Tpresel                                  ... 2.500e-12 
Coulomb Range Separation                    ... NOT USED
Exchange Range Separation                   ... NOT USED
Multipole approximations                    ... NOT USED
Finite Nucleus Model                        ... NOT USED
CABS basis                                  ... NOT available
Auxiliary Coulomb fitting basis             ... AVAILABLE
   # of basis functions in Aux-J            ...     93
   # of shells in Aux-J                     ...     35
   Maximum angular momentum in Aux-J        ...      4
Auxiliary J/K fitting basis                 ... NOT available
Auxiliary Correlation fitting basis         ... NOT available
Auxiliary 'external' fitting basis          ... NOT available

Checking pre-screening integrals            ... done (  0.0 sec) Dimension = 7
   => SHARK Basis and OBASIS are compatible. Storing Pre-screening
Shell pair information
Shell pair cut-off parameter TPreSel        ...   2.5e-12
Total number of shell pairs                 ...        28
Shell pairs after pre-screening             ...        28
Total number of primitive shell pairs       ...       252
Primitive shell pairs kept                  ...       252
          la=0 lb=0:     21 shell pairs
          la=1 lb=0:      6 shell pairs
          la=1 lb=1:      1 shell pairs

Checking whether 4 symmetric matrices of dimension 9 fit in memory
:Max Core in MB      =   2560.00
 MB in use           =      3.18
 MB left             =   2556.82
 MB needed           =      0.00
 Data fit in memory  = YES
Calculating RI/J V-Matrix + Cholesky decomp.... done (  0.0 sec)
Calculating Nuclear repulsion               ... done (  0.0 sec) ENN=     13.472842909791 Eh

Diagonalization of the overlap matrix:
Smallest eigenvalue                        ... 2.191e-01
Time for diagonalization                   ...    0.000 sec
Threshold for overlap eigenvalues          ... 1.000e-07
Number of eigenvalues below threshold      ... 0
Time for construction of square roots      ...    0.000 sec
Total time needed                          ...    0.002 sec

-------------------
DFT GRID GENERATION
-------------------

General Integration Accuracy     IntAcc      ... 4.388
Radial Grid Type                 RadialGrid  ... OptM3 with GC (2021)
Angular Grid (max. ang.)         AngularGrid ... 4 (Lebedev-302)
Angular grid pruning method      GridPruning ... 4 (adaptive)
Weight generation scheme         WeightScheme... mBecke (2022)
Basis function cutoff            BFCut       ... 1.0000e-11
Integration weight cutoff        WCut        ... 1.0000e-14
Partially contracted basis set               ... off
Rotationally invariant grid construction     ... off
Angular grids for H and He will be reduced by one unit

Total number of grid points                  ...    19254
Total number of batches                      ...      303
Average number of points per batch           ...       63
Average number of grid points per atom       ...     3851

--------------------
COSX GRID GENERATION
--------------------

GRIDX 1
-------
General Integration Accuracy     IntAcc      ... 3.816
Radial Grid Type                 RadialGrid  ... OptM3 with GC (2021)
Angular Grid (max. ang.)         AngularGrid ... 1 (Lebedev-50)
Angular grid pruning method      GridPruning ... 4 (adaptive)
Weight generation scheme         WeightScheme... mBecke (2022)
Basis function cutoff            BFCut       ... 1.0000e-11
Integration weight cutoff        WCut        ... 1.0000e-14
Partially contracted basis set               ... on
Rotationally invariant grid construction     ... off
Angular grids for H and He will be reduced by one unit

Total number of grid points                  ...     2530
Total number of batches                      ...       24
Average number of points per batch           ...      105
Average number of grid points per atom       ...      506
UseSFitting                                  ... on

GRIDX 2
-------
General Integration Accuracy     IntAcc      ... 4.020
Radial Grid Type                 RadialGrid  ... OptM3 with GC (2021)
Angular Grid (max. ang.)         AngularGrid ... 2 (Lebedev-110)
Angular grid pruning method      GridPruning ... 4 (adaptive)
Weight generation scheme         WeightScheme... mBecke (2022)
Basis function cutoff            BFCut       ... 1.0000e-11
Integration weight cutoff        WCut        ... 1.0000e-14
Partially contracted basis set               ... on
Rotationally invariant grid construction     ... off
Angular grids for H and He will be reduced by one unit

Total number of grid points                  ...     5080
Total number of batches                      ...       43
Average number of points per batch           ...      118
Average number of grid points per atom       ...     1016
UseSFitting                                  ... on

GRIDX 3
-------
General Integration Accuracy     IntAcc      ... 4.338
Radial Grid Type                 RadialGrid  ... OptM3 with GC (2021)
Angular Grid (max. ang.)         AngularGrid ... 3 (Lebedev-194)
Angular grid pruning method      GridPruning ... 4 (adaptive)
Weight generation scheme         WeightScheme... mBecke (2022)
Basis function cutoff            BFCut       ... 1.0000e-11
Integration weight cutoff        WCut        ... 1.0000e-14
Partially contracted basis set               ... on
Rotationally invariant grid construction     ... off
Angular grids for H and He will be reduced by one unit

Total number of grid points                  ...    11173
Total number of batches                      ...       91
Average number of points per batch           ...      122
Average number of grid points per atom       ...     2235
UseSFitting                                  ... on
Grids setup in   0.1 sec
Initializing property integral containers    ... done (  0.0 sec)

SHARK setup successfully completed in   0.2 seconds

Maximum memory used throughout the entire STARTUP-calculation: 7.4 MB


           ************************************************************
           *        Program running with 4 parallel MPI-processes     *
           *              working on a common directory               *
           ************************************************************
-------------------------------------------------------------------------------
                                 ORCA GUESS
                   Start orbitals & Density for SCF / CASSCF
-------------------------------------------------------------------------------

------------
SCF SETTINGS
------------
Hamiltonian:
 Density Functional     Method          .... DFT(GTOs)
 Exchange Functional    Exchange        .... PBE
   PBE kappa parameter   XKappa         ....  0.804000
   PBE mue parameter    XMuePBE         ....  0.219520
 Correlation Functional Correlation     .... PBE
   PBE beta parameter  CBetaPBE         ....  0.066725
 LDA part of GGA corr.  LDAOpt          .... PW91-LDA
 Gradients option       PostSCFGGA      .... off
 Hybrid DFT is turned on
   Fraction HF Exchange ScalHFX         ....  0.250000
   Scaling of DF-GGA-X  ScalDFX         ....  0.750000
   Scaling of DF-GGA-C  ScalDFC         ....  1.000000
   Scaling of DF-LDA-C  ScalLDAC        ....  1.000000
   Perturbative correction              ....  0.000000
   NL short-range parameter             ....  6.900000
 RI-approximation to the Coulomb term is turned on
   Number of AuxJ basis functions       .... 93
   RIJ-COSX (HFX calculated with COS-X)).... on


General Settings:
 Integral files         IntName         .... orca
 Hartree-Fock type      HFTyp           .... RHF
 Total Charge           Charge          ....    0
 Multiplicity           Mult            ....    1
 Number of Electrons    NEL             ....   10
 Basis Dimension        Dim             ....    9
 Nuclear Repulsion      ENuc            ....     13.4728429098 Eh

Convergence Acceleration:
 AO-DIIS                CNVDIIS         .... on
   Start iteration      DIISMaxIt       ....    12
   Startup error        DIISStart       ....  0.200000
   # of expansion vecs  DIISMaxEq       ....     5
   Bias factor          DIISBfac        ....   1.050
   Max. coefficient     DIISMaxC        ....  10.000
 MO-DIIS                CNVKDIIS        .... off
 Trust-Rad. Augm. Hess. CNVTRAH         .... auto
   Auto Start mean grad. ratio tolernc. ....  1.125000
   Auto Start start iteration           ....    50
   Auto Start num. interpolation iter.  ....    10
   Max. Number of Micro iterations      ....    24
   Max. Number of Macro iterations      .... Maxiter - #DIIS iter
   Number of Davidson start vectors     ....     2
   Converg. threshold    (grad. norm)   ....   1.000e-05
   Grad. Scal. Fac. for Micro threshold ....   0.100
   Minimum threshold for Micro iter.    ....   1.000e-02
   NR start threshold (gradient norm)   ....   1.000e-04
   Initial trust radius                 ....   0.400
   Minimum AH scaling param. (alpha)    ....   1.000
   Maximum AH scaling param. (alpha)    .... 1000.000
   Quad. conv. algorithm                .... NR
   White noise on init. David. guess    .... on
   Maximum white noise                  ....   0.010
   Pseudo random numbers                .... off
   Inactive MOs                         .... canonical
   Orbital update algorithm             .... Taylor
   Preconditioner                       .... Diag
   Full preconditioner red. dimension   ....   250
 SOSCF                 CNVSOSCF           .... on
   Start iteration     SOSCFMaxIt         ....   150
   Startup grad/error  SOSCFStart         ....  0.003300
   Hessian update      SOSCFHessUp        .... L-BFGS
   Autom. constraints  SOSCFAutoConstrain .... off
 Level Shifting         CNVShift        .... on
   Level shift para.    LevelShift      ....    0.2500
   Turn off err/grad.   ShiftErr        ....    0.0010
 Zerner damping         CNVZerner       .... off
 Static damping         CNVDamp         .... on
   Fraction old density DampFac         ....    0.7000
   Max. Damping (<1)    DampMax         ....    0.9800
   Min. Damping (>=0)   DampMin         ....    0.0000
   Turn off err/grad.   DampErr         ....    0.1000

SCF Procedure:
 Maximum # iterations   MaxIter         ....   125
 SCF integral mode      SCFMode         .... Direct
   Integral package                     .... SHARK and LIBINT hybrid scheme
 Reset frequency        DirectResetFreq ....    20
 Integral Threshold     Thresh          ....  2.500e-11 Eh
 Primitive CutOff       TCut            ....  2.500e-12 Eh

Convergence Tolerance:
 Convergence Check Mode ConvCheckMode   .... Total+1el-Energy
 Convergence forced     ConvForced      .... 0
 Energy Change          TolE            ....  1.000e-08 Eh
 1-El. energy change                    ....  1.000e-05 Eh
 Orbital Gradient       TolG            ....  1.000e-05
 Orbital Rotation angle TolX            ....  1.000e-05
 DIIS Error             TolErr          ....  5.000e-07

------------------------------
INITIAL GUESS: MODEL POTENTIAL
------------------------------
Loading Hartree-Fock densities                     ... done
Calculating cut-offs                               ... done
Initializing the effective Hamiltonian             ... done
Setting up the integral package (SHARK)            ... done
Starting the Coulomb interaction                   ... done (   0.0 sec)
Making the grid                                    ... done (   0.0 sec)
Mapping shells                                     ... done
Starting the XC term evaluation                    ... done (   0.0 sec)
  promolecular density results
     # of electrons  =      9.997648104
     EX              =     -6.269272976
     EC              =     -0.294761067
     EX+EC           =     -6.564034043
Transforming the Hamiltonian                       ... done (   0.0 sec)
Diagonalizing the Hamiltonian                      ... done (   0.0 sec)
Back transforming the eigenvectors                 ... done (   0.0 sec)
Now organizing SCF variables                       ... done
                      ------------------
                      INITIAL GUESS DONE (   0.0 sec)
                      ------------------
             **** ENERGY FILE WAS UPDATED (orca.en.tmp) ****
Finished Guess after   0.9 sec
Maximum memory used throughout the entire GUESS-calculation: 4.5 MB


           ************************************************************
           *        Program running with 4 parallel MPI-processes     *
           *              working on a common directory               *
           ************************************************************

-------------------------------------------------------------------------------------------
                                      ORCA LEAN-SCF
                              memory conserving SCF solver
-------------------------------------------------------------------------------------------

----------------------------------------D-I-I-S--------------------------------------------
Iteration    Energy (Eh)           Delta-E    RMSDP     MaxDP     DIISErr   Damp  Time(sec)
-------------------------------------------------------------------------------------------
               ***  Starting incremental Fock matrix formation  ***
    1    -39.9567602960088664     0.00e+00  3.97e-02  6.71e-02  9.32e-02  0.700   0.1
    2    -39.9687073477045658    -1.19e-02  2.92e-02  4.67e-02  5.50e-02  0.700   0.1
                               ***Turning on AO-DIIS***
    3    -39.9745714969301247    -5.86e-03  1.10e-02  1.67e-02  2.67e-02  0.700   0.1
    4    -39.9778999288083412    -3.33e-03  1.85e-02  2.86e-02  1.59e-02  0.000   0.1
                              *** Initializing SOSCF ***
---------------------------------------S-O-S-C-F--------------------------------------
Iteration    Energy (Eh)           Delta-E    RMSDP     MaxDP     MaxGrad    Time(sec)
--------------------------------------------------------------------------------------
    5    -39.9847020612788384    -6.80e-03  1.74e-03  2.41e-03  2.15e-03     0.1
               *** Restarting incremental Fock matrix formation ***
    6    -39.9847212597210273    -1.92e-05  7.05e-04  1.01e-03  3.31e-04     0.1
    7    -39.9847214907404549    -2.31e-07  3.03e-04  4.90e-04  2.51e-04     0.1
    8    -39.9847217666297894    -2.76e-07  3.79e-06  1.26e-05  3.76e-06     0.1
    9    -39.9847217660437479     5.86e-10  3.07e-07  9.85e-07  2.61e-07     0.1
                 **** Energy Check signals convergence ****

               *****************************************************
               *                     SUCCESS                       *
               *           SCF CONVERGED AFTER   9 CYCLES          *
               *****************************************************

Recomputing exchange energy using gridx3       ... done (    0.031 sec)
Old exchange energy                            :     -1.655176445 Eh
New exchange energy                            :     -1.655173219 Eh
Exchange energy change after final integration :      0.000003226 Eh
Total energy after final integration           :    -39.984718538 Eh
             **** ENERGY FILE WAS UPDATED (orca.en.tmp) ****

----------------
TOTAL SCF ENERGY
----------------

Total Energy       :        -39.98471853756992 Eh           -1088.03951 eV

Components:
Nuclear Repulsion  :         13.47284290979114 Eh             366.61469 eV
Electronic Energy  :        -53.45756467371773 Eh           -1454.65429 eV
One Electron Energy:        -79.52056238363514 Eh           -2163.86451 eV
Two Electron Energy:         26.06299770991741 Eh             709.21022 eV

Virial components:
Potential Energy   :        -79.43165759872969 Eh           -2161.44529 eV
Kinetic Energy     :         39.44693906115977 Eh            1073.40578 eV
Virial Ratio       :          2.01363298367907

DFT components:
N(Alpha)           :        5.000000873116 electrons
N(Beta)            :        5.000000873116 electrons
N(Total)           :       10.000001746231 electrons
E(X)               :       -4.913270885432 Eh       
E(C)               :       -0.310689115032 Eh       
E(XC)              :       -5.223960000465 Eh       

---------------
SCF CONVERGENCE
---------------

  Last Energy change         ...   -5.8604e-10  Tolerance :   1.0000e-08
  Last MAX-Density change    ...    9.8472e-07  Tolerance :   1.0000e-07
  Last RMS-Density change    ...    3.0699e-07  Tolerance :   5.0000e-09
  Last DIIS Error            ...    2.1467e-03  Tolerance :   5.0000e-07
  Last Orbital Gradient      ...    2.6113e-07  Tolerance :   1.0000e-05
  Last Orbital Rotation      ...    2.3856e-07  Tolerance :   1.0000e-05


----------------
ORBITAL ENERGIES
----------------

  NO   OCC          E(Eh)            E(eV) 
   0   2.0000     -10.033334      -273.0209 
   1   2.0000      -0.682467       -18.5709 
   2   2.0000      -0.372307       -10.1310 
   3   2.0000      -0.372284       -10.1304 
   4   2.0000      -0.372275       -10.1301 
   5   0.0000       0.484257        13.1773 
   6   0.0000       0.484275        13.1778 
   7   0.0000       0.484325        13.1791 
   8   0.0000       0.522806        14.2263 
*Only the first 10 virtual orbitals were printed.

                    ********************************
                    * MULLIKEN POPULATION ANALYSIS *
                    ********************************

-----------------------
MULLIKEN ATOMIC CHARGES
-----------------------
   0 H :    0.084828
   1 C :   -0.339287
   2 H :    0.084810
   3 H :    0.084829
   4 H :    0.084820
Sum of atomic charges:    0.0000000

--------------------------------
MULLIKEN REDUCED ORBITAL CHARGES
--------------------------------
  0 H s       :     0.915172  s :     0.915172

  1 C s       :     3.199963  s :     3.199963
      pz      :     1.046429  p :     3.139324
      px      :     1.046447
      py      :     1.046448

  2 H s       :     0.915190  s :     0.915190

  3 H s       :     0.915171  s :     0.915171

  4 H s       :     0.915180  s :     0.915180



                     *******************************
                     * LOEWDIN POPULATION ANALYSIS *
                     *******************************

----------------------
LOEWDIN ATOMIC CHARGES
----------------------
   0 H :    0.050528
   1 C :   -0.202096
   2 H :    0.050516
   3 H :    0.050530
   4 H :    0.050522

-------------------------------
LOEWDIN REDUCED ORBITAL CHARGES
-------------------------------
  0 H s       :     0.949472  s :     0.949472

  1 C s       :     2.997899  s :     2.997899
      pz      :     1.068053  p :     3.204197
      px      :     1.068072
      py      :     1.068072

  2 H s       :     0.949484  s :     0.949484

  3 H s       :     0.949470  s :     0.949470

  4 H s       :     0.949478  s :     0.949478



                      *****************************
                      * MAYER POPULATION ANALYSIS *
                      *****************************

  NA   - Mulliken gross atomic population
  ZA   - Total nuclear charge
  QA   - Mulliken gross atomic charge
  VA   - Mayer's total valence
  BVA  - Mayer's bonded valence
  FA   - Mayer's free valence

  ATOM       NA         ZA         QA         VA         BVA        FA
  0 H      0.9152     1.0000     0.0848     0.9928     0.9928     0.0000
  1 C      6.3393     6.0000    -0.3393     3.9535     3.9535     0.0000
  2 H      0.9152     1.0000     0.0848     0.9928     0.9928     0.0000
  3 H      0.9152     1.0000     0.0848     0.9928     0.9928     0.0000
  4 H      0.9152     1.0000     0.0848     0.9928     0.9928     0.0000

  Mayer bond orders larger than 0.100000
B(  0-H ,  1-C ) :   0.9884 B(  1-C ,  2-H ) :   0.9884 B(  1-C ,  3-H ) :   0.9884 
B(  1-C ,  4-H ) :   0.9884 

-------
TIMINGS
-------

Total SCF time: 0 days 0 hours 0 min 1 sec 

Total time                  ....       1.554 sec
Sum of individual times     ....       1.306 sec  ( 84.1%)

SCF preparation             ....       0.581 sec  ( 37.4%)
Fock matrix formation       ....       0.529 sec  ( 34.0%)
  Startup                   ....       0.006 sec  (  1.0% of F)
  Split-RI-J                ....       0.031 sec  (  5.8% of F)
  Chain of spheres X        ....       0.287 sec  ( 54.3% of F)
  XC integration            ....       0.285 sec  ( 53.9% of F)
    XC Preparation          ....       0.000 sec  (  0.0% of XC)
    Basis function eval.    ....       0.068 sec  ( 23.9% of XC)
    Density eval.           ....       0.009 sec  (  3.2% of XC)
    XC-Functional eval.     ....       0.019 sec  (  6.8% of XC)
    XC-Potential eval.      ....       0.003 sec  (  1.1% of XC)
Diagonalization             ....       0.000 sec  (  0.0%)
Density matrix formation    ....       0.024 sec  (  1.6%)
Total Energy calculation    ....       0.018 sec  (  1.2%)
Population analysis         ....       0.021 sec  (  1.3%)
Orbital Transformation      ....       0.023 sec  (  1.5%)
Orbital Orthonormalization  ....       0.000 sec  (  0.0%)
DIIS solution               ....       0.068 sec  (  4.4%)
SOSCF solution              ....       0.042 sec  (  2.7%)
Finished LeanSCF after   1.6 sec

Maximum memory used throughout the entire LEANSCF-calculation: 4.1 MB


           ************************************************************
           *        Program running with 4 parallel MPI-processes     *
           *              working on a common directory               *
           ************************************************************

------------------------------------------------------------------------------
                         ORCA PROPERTY INTEGRAL CALCULATIONS
------------------------------------------------------------------------------

GBWName                                   ... orca.gbw
Number of atoms                           ...      5
Number of basis functions                 ...      9
Max core memory                           ...   2560 MB

Dipole integrals                          ... YES
Quadrupole integrals                      ...  NO
Linear momentum integrals                 ...  NO
Angular momentum integrals                ...  NO
Higher moments length integrals           ...  NO
Higher moments velocity integrals         ...  NO
Kinetic energy integrals                  ...  NO
GIAO right hand sides                     ...  NO
GIAO dipole derivative integrals          ...  NO
SOC integrals                             ...  NO
EPR diamagnetic integrals (GIAO)          ...  NO
EPR gauge integrals                       ...  NO
Field gradient integrals                  ...  NO (   0 nuclei)
Spin-dipole/Fermi contact integrals       ...  NO (   0 nuclei)
Contact density integrals                 ...  NO (   0 nuclei)
Nucleus-orbit integrals                   ...  NO (   0 nuclei)
Geometric perturbations                   ...  NO (   5 nuclei)

Choice of electric origin   ... Center of mass
Position of electric origin ... ( -0.0000, -0.0000, -0.0000) 
Choice of magnetic origin   ... GIAO
Position of magnetic origin ... (  0.0000,  0.0000,  0.0000) 

Calculating integrals                     ... Electric Dipole (Length)     done (  0.0 sec)

Property integrals calculated in   0.0 sec

Maximum memory used throughout the entire PROPINT-calculation: 4.6 MB

-------------------------   --------------------
FINAL SINGLE POINT ENERGY       -39.984718537570
-------------------------   --------------------



           ************************************************************
           *        Program running with 4 parallel MPI-processes     *
           *              working on a common directory               *
           ************************************************************
------------------------------------------------------------------------------
                         ORCA SCF GRADIENT CALCULATION
------------------------------------------------------------------------------

Nuc. rep. gradient        (SHARK) ... done (  0.0 sec)
HCore & Overlap gradient  (SHARK) ... done (  0.0 sec)
Split-RIJ-J gradient      (SHARK) ... done (  0.0 sec)
COSX-gradient                     ... done (  0.1 sec)
XC gradient                       ... done (  0.0 sec)

------------------
CARTESIAN GRADIENT
------------------

   1   H   :   -0.002626896   -0.000808991   -0.004645903
   2   C   :    0.000009096    0.000014129    0.000058269
   3   H   :   -0.001025656   -0.004077755    0.003332849
   4   H   :   -0.001654712    0.004605688    0.002219027
   5   H   :    0.005298168    0.000266929   -0.000964243

Difference to translation invariance:
           :    0.0000000000    0.0000000000    0.0000000000

Difference to rotation invariance:
           :   -0.0000138589   -0.0000002592    0.0000049711

Norm of the Cartesian gradient     ...    0.0107646268
RMS gradient                       ...    0.0027794147
MAX gradient                       ...    0.0052981680

-------
TIMINGS
-------

Total SCF gradient time     ....        0.148 sec

Densities                   ....       0.000 sec  (  0.0%)
One electron gradient       ....       0.002 sec  (  1.0%)
RI-J Coulomb gradient       ....       0.035 sec  ( 23.9%)
COSX gradient               ....       0.075 sec  ( 50.5%)
XC gradient                 ....       0.036 sec  ( 24.3%)

Maximum memory used throughout the entire SCFGRAD-calculation: 5.2 MB
------------------------------------------------------------------------------
                         ORCA GEOMETRY RELAXATION STEP
------------------------------------------------------------------------------

Reading the OPT-File                    .... done
Getting information on internals        .... done
Copying old internal coords+grads       .... done
Making the new internal coordinates     .... (2022 redundants) done
Validating the new internal coordinates .... (2022 redundants) done
Calculating the B-matrix                .... done
Calculating the G,G- and P matrices     .... done
Transforming gradient to internals      .... done
Projecting the internal gradient        .... done
Number of atoms                         ....   5
Number of internal coordinates          ....  10
Current Energy                          ....   -39.984718538 Eh
Current gradient norm                   ....     0.010764627 Eh/bohr
Maximum allowed component of the step   ....  0.300
Current trust radius                    ....  0.300
Evaluating the initial hessian          ....  (Almloef) done
Projecting the Hessian                  .... done
Forming the augmented Hessian           .... done
Diagonalizing the augmented Hessian     .... done
Last element of RFO vector              ....  0.999564084
Lowest eigenvalues of augmented Hessian:
 -0.000317945  0.291854640  0.291858303  0.291859059  0.291859810
Length of the computed step             ....  0.029536449
The final length of the internal step   ....  0.029536449
Converting the step to Cartesian space:
 Initial RMS(Int)=    0.0093402452
Transforming coordinates:
 Iter   0:  RMS(Cart)=    0.0076262569 RMS(Int)=    0.0093402452
done
Storing new coordinates                 .... done

                                .--------------------.
          ----------------------|Geometry convergence|-------------------------
          Item                value                   Tolerance       Converged
          ---------------------------------------------------------------------
          RMS gradient        0.0034040301            0.0001000000      NO
          MAX gradient        0.0053980890            0.0003000000      NO
          RMS step            0.0093402452            0.0020000000      NO
          MAX step            0.0148105453            0.0040000000      NO
          -------------------------------------------------------------------------
          ........................................................
          Max(Bonds)      0.0078      Max(Angles)    0.01
          Max(Dihed)        0.00      Max(Improp)    0.00
          ---------------------------------------------------------------------

The optimization has not yet converged - more geometry cycles are needed


    ---------------------------------------------------------------------------
                         Redundant Internal Coordinates
                            (Angstroem and degrees)

        Definition                    Value    dE/dq     Step     New-Value
    ----------------------------------------------------------------------------
     1. B(C   1,H   0)                1.0869 -0.005398  0.0078    1.0948   
     2. B(H   2,C   1)                1.0870 -0.005365  0.0078    1.0948   
     3. B(H   3,C   1)                1.0870 -0.005373  0.0078    1.0948   
     4. B(H   4,C   1)                1.0870 -0.005392  0.0078    1.0948   
     5. A(H   0,C   1,H   3)          109.47 -0.000000    0.00    109.47   
     6. A(H   2,C   1,H   3)          109.47 -0.000015    0.00    109.47   
     7. A(H   0,C   1,H   4)          109.47  0.000011   -0.00    109.47   
     8. A(H   2,C   1,H   4)          109.47 -0.000015    0.00    109.47   
     9. A(H   3,C   1,H   4)          109.47 -0.000009    0.00    109.47   
    10. A(H   0,C   1,H   2)          109.48  0.000029   -0.01    109.47   
    ----------------------------------------------------------------------------

Geometry step timings:
Preparation and reading OPT file:      0.000 s ( 2.189 %)
Internal coordinates            :      0.000 s ( 3.030 %)
B/P matrices and projection     :      0.000 s ( 8.838 %)
Hessian update/contruction      :      0.000 s (31.397 %)
Making the step                 :      0.000 s ( 6.734 %)
Converting the step to Cartesian:      0.000 s ( 2.104 %)
Storing new data                :      0.000 s ( 5.556 %)
Checking convergence            :      0.000 s (24.242 %)
Final printing                  :      0.000 s (15.909 %)
Total time                      :      0.001 s

Time for energy+gradient        :      6.713 s
Time for complete geometry iter :      7.779 s

         *************************************************************
         *                GEOMETRY OPTIMIZATION CYCLE   2            *
         *************************************************************
---------------------------------
CARTESIAN COORDINATES (ANGSTROEM)
---------------------------------
  H      0.532603    0.162185    0.942610
  C     -0.000011   -0.000013   -0.000031
  H      0.206600    0.829926   -0.683443
  H      0.336907   -0.938105   -0.452834
  H     -1.076199   -0.054094    0.193497

----------------------------
CARTESIAN COORDINATES (A.U.)
----------------------------
  NO LB      ZA    FRAG     MASS         X           Y           Z
   0 H     1.0000    0     1.008    1.006474    0.306485    1.781275
   1 C     6.0000    0    12.011   -0.000021   -0.000024   -0.000058
   2 H     1.0000    0     1.008    0.390417    1.568332   -1.291520
   3 H     1.0000    0     1.008    0.636661   -1.772761   -0.855732
   4 H     1.0000    0     1.008   -2.033721   -0.102222    0.365657

--------------------------------
INTERNAL COORDINATES (ANGSTROEM)
--------------------------------
 H      0   0   0     0.000000000000     0.00000000     0.00000000
 C      1   0   0     1.094786918876     0.00000000     0.00000000
 H      2   1   0     1.094777631427   109.47316109     0.00000000
 H      2   1   3     1.094787708714   109.47224944   120.00060136
 H      2   1   3     1.094786821081   109.47210867   239.99954862

---------------------------
INTERNAL COORDINATES (A.U.)
---------------------------
 H      0   0   0     0.000000000000     0.00000000     0.00000000
 C      1   0   0     2.068847451676     0.00000000     0.00000000
 H      2   1   0     2.068829900939   109.47316109     0.00000000
 H      2   1   3     2.068848944253   109.47224944   120.00060136
 H      2   1   3     2.068847266869   109.47210867   239.99954862



           ************************************************************
           *        Program running with 4 parallel MPI-processes     *
           *              working on a common directory               *
           ************************************************************
------------------------------------------------------------------------------
                   ___                                                        
                  /   \      - P O W E R E D   B Y -                         
                 /     \                                                     
                 |  |  |   _    _      __       _____    __    __             
                 |  |  |  | |  | |    /  \     |  _  \  |  |  /  |          
                  \  \/   | |  | |   /    \    | | | |  |  | /  /          
                 / \  \   | |__| |  /  /\  \   | |_| |  |  |/  /          
                |  |  |   |  __  | /  /__\  \  |    /   |      \           
                |  |  |   | |  | | |   __   |  |    \   |  |\   \          
                \     /   | |  | | |  |  |  |  | |\  \  |  | \   \       
                 \___/    |_|  |_| |__|  |__|  |_| \__\ |__|  \__/        
                                                                              
                      - O R C A' S   B I G   F R I E N D -                    
                                      &                                       
                       - I N T E G R A L  F E E D E R -                       
                                                                              
 v1 FN, 2020, v2 2021, v3 2022-2024                                           
------------------------------------------------------------------------------


----------------------
SHARK INTEGRAL PACKAGE
----------------------

Number of atoms                             ...      5
Number of basis functions                   ...      9
Number of shells                            ...      7
Maximum angular momentum                    ...      1
Integral batch strategy                     ... SHARK/LIBINT Hybrid
RI-J (if used) integral strategy            ... SPLIT-RIJ (Revised 2003 algorithm where possible)
Printlevel                                  ...      1
Contraction scheme used                     ... SEGMENTED contraction
Prescreening option                         ... SCHWARTZ
   Thresh                                   ... 2.500e-11
   Tcut                                     ... 2.500e-12
   Tpresel                                  ... 2.500e-12 
Coulomb Range Separation                    ... NOT USED
Exchange Range Separation                   ... NOT USED
Multipole approximations                    ... NOT USED
Finite Nucleus Model                        ... NOT USED
CABS basis                                  ... NOT available
Auxiliary Coulomb fitting basis             ... AVAILABLE
   # of basis functions in Aux-J            ...     93
   # of shells in Aux-J                     ...     35
   Maximum angular momentum in Aux-J        ...      4
Auxiliary J/K fitting basis                 ... NOT available
Auxiliary Correlation fitting basis         ... NOT available
Auxiliary 'external' fitting basis          ... NOT available

Checking pre-screening integrals            ... done (  0.0 sec) Dimension = 7
   => SHARK Basis and OBASIS are compatible. Storing Pre-screening
Shell pair information
Shell pair cut-off parameter TPreSel        ...   2.5e-12
Total number of shell pairs                 ...        28
Shell pairs after pre-screening             ...        28
Total number of primitive shell pairs       ...       252
Primitive shell pairs kept                  ...       252
          la=0 lb=0:     21 shell pairs
          la=1 lb=0:      6 shell pairs
          la=1 lb=1:      1 shell pairs

Checking whether 4 symmetric matrices of dimension 9 fit in memory
:Max Core in MB      =   2560.00
 MB in use           =      3.18
 MB left             =   2556.82
 MB needed           =      0.00
 Data fit in memory  = YES
Calculating RI/J V-Matrix + Cholesky decomp.... done (  0.0 sec)
Calculating Nuclear repulsion               ... done (  0.0 sec) ENN=     13.376669658366 Eh

Diagonalization of the overlap matrix:
Smallest eigenvalue                        ... 2.236e-01
Time for diagonalization                   ...    0.000 sec
Threshold for overlap eigenvalues          ... 1.000e-07
Number of eigenvalues below threshold      ... 0
Time for construction of square roots      ...    0.000 sec
Total time needed                          ...    0.002 sec

-------------------
DFT GRID GENERATION
-------------------

General Integration Accuracy     IntAcc      ... 4.388
Radial Grid Type                 RadialGrid  ... OptM3 with GC (2021)
Angular Grid (max. ang.)         AngularGrid ... 4 (Lebedev-302)
Angular grid pruning method      GridPruning ... 4 (adaptive)
Weight generation scheme         WeightScheme... mBecke (2022)
Basis function cutoff            BFCut       ... 1.0000e-11
Integration weight cutoff        WCut        ... 1.0000e-14
Partially contracted basis set               ... off
Rotationally invariant grid construction     ... off
Angular grids for H and He will be reduced by one unit

Total number of grid points                  ...    19255
Total number of batches                      ...      303
Average number of points per batch           ...       63
Average number of grid points per atom       ...     3851

--------------------
COSX GRID GENERATION
--------------------

GRIDX 1
-------
General Integration Accuracy     IntAcc      ... 3.816
Radial Grid Type                 RadialGrid  ... OptM3 with GC (2021)
Angular Grid (max. ang.)         AngularGrid ... 1 (Lebedev-50)
Angular grid pruning method      GridPruning ... 4 (adaptive)
Weight generation scheme         WeightScheme... mBecke (2022)
Basis function cutoff            BFCut       ... 1.0000e-11
Integration weight cutoff        WCut        ... 1.0000e-14
Partially contracted basis set               ... on
Rotationally invariant grid construction     ... off
Angular grids for H and He will be reduced by one unit

Total number of grid points                  ...     2530
Total number of batches                      ...       24
Average number of points per batch           ...      105
Average number of grid points per atom       ...      506
UseSFitting                                  ... on

GRIDX 2
-------
General Integration Accuracy     IntAcc      ... 4.020
Radial Grid Type                 RadialGrid  ... OptM3 with GC (2021)
Angular Grid (max. ang.)         AngularGrid ... 2 (Lebedev-110)
Angular grid pruning method      GridPruning ... 4 (adaptive)
Weight generation scheme         WeightScheme... mBecke (2022)
Basis function cutoff            BFCut       ... 1.0000e-11
Integration weight cutoff        WCut        ... 1.0000e-14
Partially contracted basis set               ... on
Rotationally invariant grid construction     ... off
Angular grids for H and He will be reduced by one unit

Total number of grid points                  ...     5082
Total number of batches                      ...       43
Average number of points per batch           ...      118
Average number of grid points per atom       ...     1016
UseSFitting                                  ... on

GRIDX 3
-------
General Integration Accuracy     IntAcc      ... 4.338
Radial Grid Type                 RadialGrid  ... OptM3 with GC (2021)
Angular Grid (max. ang.)         AngularGrid ... 3 (Lebedev-194)
Angular grid pruning method      GridPruning ... 4 (adaptive)
Weight generation scheme         WeightScheme... mBecke (2022)
Basis function cutoff            BFCut       ... 1.0000e-11
Integration weight cutoff        WCut        ... 1.0000e-14
Partially contracted basis set               ... on
Rotationally invariant grid construction     ... off
Angular grids for H and He will be reduced by one unit

Total number of grid points                  ...    11175
Total number of batches                      ...       91
Average number of points per batch           ...      122
Average number of grid points per atom       ...     2235
UseSFitting                                  ... on
Grids setup in   0.2 sec
Initializing property integral containers    ... done (  0.0 sec)

SHARK setup successfully completed in   0.2 seconds

Maximum memory used throughout the entire STARTUP-calculation: 7.4 MB


           ************************************************************
           *        Program running with 4 parallel MPI-processes     *
           *              working on a common directory               *
           ************************************************************
Occupation numbers will be reassigned to an Aufbau configuration
             **** ENERGY FILE WAS UPDATED (orca.en.tmp) ****
Finished Guess after   0.7 sec
Maximum memory used throughout the entire GUESS-calculation: 4.4 MB


           ************************************************************
           *        Program running with 4 parallel MPI-processes     *
           *              working on a common directory               *
           ************************************************************
----------------------------------------D-I-I-S--------------------------------------------
Iteration    Energy (Eh)           Delta-E    RMSDP     MaxDP     DIISErr   Damp  Time(sec)
-------------------------------------------------------------------------------------------
               ***  Starting incremental Fock matrix formation  ***
                              *** Initializing SOSCF ***
---------------------------------------S-O-S-C-F--------------------------------------
Iteration    Energy (Eh)           Delta-E    RMSDP     MaxDP     MaxGrad    Time(sec)
--------------------------------------------------------------------------------------
    1    -39.9848391334587632     0.00e+00  2.27e-03  3.46e-03  3.39e-04     0.1
               *** Restarting incremental Fock matrix formation ***
    2    -39.9848494357193829    -1.03e-05  1.07e-03  2.72e-03  7.95e-04     0.1
    3    -39.9848501067664444    -6.71e-07  4.24e-04  5.81e-04  3.37e-04     0.1
    4    -39.9848506604374592    -5.54e-07  4.06e-06  1.20e-05  4.30e-06     0.1
    5    -39.9848506611922545    -7.55e-10  8.91e-08  2.95e-07  9.08e-08     0.1
                 **** Energy Check signals convergence ****

               *****************************************************
               *                     SUCCESS                       *
               *           SCF CONVERGED AFTER   5 CYCLES          *
               *****************************************************

Recomputing exchange energy using gridx3       ... done (    0.026 sec)
Old exchange energy                            :     -1.653072014 Eh
New exchange energy                            :     -1.653069428 Eh
Exchange energy change after final integration :      0.000002586 Eh
Total energy after final integration           :    -39.984848078 Eh
             **** ENERGY FILE WAS UPDATED (orca.en.tmp) ****

----------------
TOTAL SCF ENERGY
----------------

Total Energy       :        -39.98484807767103 Eh           -1088.04303 eV

Components:
Nuclear Repulsion  :         13.37666965836609 Eh             363.99769 eV
Electronic Energy  :        -53.36152032211779 Eh           -1452.04079 eV
One Electron Energy:        -79.35294388638609 Eh           -2159.30338 eV
Two Electron Energy:         25.99142356426830 Eh             707.26259 eV

Virial components:
Potential Energy   :        -79.40890145497582 Eh           -2160.82606 eV
Kinetic Energy     :         39.42405337730479 Eh            1072.78303 eV
Virial Ratio       :          2.01422468397654

DFT components:
N(Alpha)           :        5.000000872655 electrons
N(Beta)            :        5.000000872655 electrons
N(Total)           :       10.000001745310 electrons
E(X)               :       -4.908049701894 Eh       
E(C)               :       -0.310136145273 Eh       
E(XC)              :       -5.218185847168 Eh       

---------------
SCF CONVERGENCE
---------------

  Last Energy change         ...    7.5480e-10  Tolerance :   1.0000e-08
  Last MAX-Density change    ...    2.9510e-07  Tolerance :   1.0000e-07
  Last RMS-Density change    ...    8.9070e-08  Tolerance :   5.0000e-09
  Last DIIS Error            ...    1.8780e-03  Tolerance :   5.0000e-07
  Last Orbital Gradient      ...    9.0774e-08  Tolerance :   1.0000e-05
  Last Orbital Rotation      ...    7.1572e-08  Tolerance :   1.0000e-05


Total SCF time: 0 days 0 hours 0 min 1 sec 
Finished LeanSCF after   2.0 sec

Maximum memory used throughout the entire LEANSCF-calculation: 4.1 MB


           ************************************************************
           *        Program running with 4 parallel MPI-processes     *
           *              working on a common directory               *
           ************************************************************

------------------------------------------------------------------------------
                         ORCA PROPERTY INTEGRAL CALCULATIONS
------------------------------------------------------------------------------

GBWName                                   ... orca.gbw
Number of atoms                           ...      5
Number of basis functions                 ...      9
Max core memory                           ...   2560 MB

Dipole integrals                          ... YES
Quadrupole integrals                      ...  NO
Linear momentum integrals                 ...  NO
Angular momentum integrals                ...  NO
Higher moments length integrals           ...  NO
Higher moments velocity integrals         ...  NO
Kinetic energy integrals                  ...  NO
GIAO right hand sides                     ...  NO
GIAO dipole derivative integrals          ...  NO
SOC integrals                             ...  NO
EPR diamagnetic integrals (GIAO)          ...  NO
EPR gauge integrals                       ...  NO
Field gradient integrals                  ...  NO (   0 nuclei)
Spin-dipole/Fermi contact integrals       ...  NO (   0 nuclei)
Contact density integrals                 ...  NO (   0 nuclei)
Nucleus-orbit integrals                   ...  NO (   0 nuclei)
Geometric perturbations                   ...  NO (   5 nuclei)

Choice of electric origin   ... Center of mass
Position of electric origin ... ( -0.0000, -0.0000, -0.0001) 
Choice of magnetic origin   ... GIAO
Position of magnetic origin ... (  0.0000,  0.0000,  0.0000) 

Calculating integrals                     ... Electric Dipole (Length)     done (  0.0 sec)

Property integrals calculated in   0.0 sec

Maximum memory used throughout the entire PROPINT-calculation: 4.6 MB

-------------------------   --------------------
FINAL SINGLE POINT ENERGY       -39.984848077671
-------------------------   --------------------



           ************************************************************
           *        Program running with 4 parallel MPI-processes     *
           *              working on a common directory               *
           ************************************************************
------------------------------------------------------------------------------
                         ORCA SCF GRADIENT CALCULATION
------------------------------------------------------------------------------

Nuc. rep. gradient        (SHARK) ... done (  0.0 sec)
HCore & Overlap gradient  (SHARK) ... done (  0.0 sec)
Split-RIJ-J gradient      (SHARK) ... done (  0.0 sec)
COSX-gradient                     ... done (  0.1 sec)
XC gradient                       ... done (  0.0 sec)

------------------
CARTESIAN GRADIENT
------------------

   1   H   :    0.000465643    0.000139805    0.000824912
   2   C   :    0.000010684    0.000009237    0.000009953
   3   H   :    0.000173718    0.000716240   -0.000602720
   4   H   :    0.000293149   -0.000817816   -0.000396272
   5   H   :   -0.000943193   -0.000047465    0.000164127

Difference to translation invariance:
           :   -0.0000000000    0.0000000000    0.0000000000

Difference to rotation invariance:
           :   -0.0000131916    0.0000004766    0.0000043087

Norm of the Cartesian gradient     ...    0.0019115941
RMS gradient                       ...    0.0004935715
MAX gradient                       ...    0.0009431934

-------
TIMINGS
-------

Total SCF gradient time     ....        0.150 sec

Densities                   ....       0.000 sec  (  0.0%)
One electron gradient       ....       0.001 sec  (  1.0%)
RI-J Coulomb gradient       ....       0.037 sec  ( 24.5%)
COSX gradient               ....       0.076 sec  ( 50.5%)
XC gradient                 ....       0.036 sec  ( 23.9%)

Maximum memory used throughout the entire SCFGRAD-calculation: 5.2 MB
------------------------------------------------------------------------------
                         ORCA GEOMETRY RELAXATION STEP
------------------------------------------------------------------------------

Reading the OPT-File                    .... done
Getting information on internals        .... done
Copying old internal coords+grads       .... done
Making the new internal coordinates     .... (2022 redundants) done
Validating the new internal coordinates .... (2022 redundants) done
Calculating the B-matrix                .... done
Calculating the G,G- and P matrices     .... done
Transforming gradient to internals      .... done
Projecting the internal gradient        .... done
Number of atoms                         ....   5
Number of internal coordinates          ....  10
Current Energy                          ....   -39.984848078 Eh
Current gradient norm                   ....     0.001911594 Eh/bohr
Maximum allowed component of the step   ....  0.300
Current trust radius                    ....  0.300
Updating the Hessian (BFGS)             .... done
Forming the augmented Hessian           .... done
Diagonalizing the augmented Hessian     .... done
Last element of RFO vector              ....  0.999990081
Lowest eigenvalues of augmented Hessian:
 -0.000008514  0.291851811  0.291856030  0.291858359  0.291859697
Length of the computed step             ....  0.004454035
The final length of the internal step   ....  0.004454035
Converting the step to Cartesian space:
 Initial RMS(Int)=    0.0014084895
Transforming coordinates:
 Iter   0:  RMS(Cart)=    0.0011500357 RMS(Int)=    0.0014084895
done
Storing new coordinates                 .... done
The predicted energy change is          ....    -0.000004257
Previously predicted energy change      ....    -0.000159111
Actually observed energy change         ....    -0.000129540
Ratio of predicted to observed change   ....     0.814149231
New trust radius                        ....     0.450000000

                                .--------------------.
          ----------------------|Geometry convergence|-------------------------
          Item                value                   Tolerance       Converged
          ---------------------------------------------------------------------
          Energy change      -0.0001295401            0.0000050000      NO
          RMS gradient        0.0006044858            0.0001000000      NO
          MAX gradient        0.0009585277            0.0003000000      NO
          RMS step            0.0014084895            0.0020000000      YES
          MAX step            0.0022332842            0.0040000000      YES
          -------------------------------------------------------------------------
          ........................................................
          Max(Bonds)      0.0012      Max(Angles)    0.00
          Max(Dihed)        0.00      Max(Improp)    0.00
          ---------------------------------------------------------------------

The optimization has not yet converged - more geometry cycles are needed


    ---------------------------------------------------------------------------
                         Redundant Internal Coordinates
                            (Angstroem and degrees)

        Definition                    Value    dE/dq     Step     New-Value
    ----------------------------------------------------------------------------
     1. B(C   1,H   0)                1.0948  0.000958 -0.0012    1.0936   
     2. B(H   2,C   1)                1.0948  0.000952 -0.0012    1.0936   
     3. B(H   3,C   1)                1.0948  0.000955 -0.0012    1.0936   
     4. B(H   4,C   1)                1.0948  0.000959 -0.0012    1.0936   
     5. A(H   0,C   1,H   3)          109.47  0.000001   -0.00    109.47   
     6. A(H   2,C   1,H   3)          109.47 -0.000008    0.00    109.47   
     7. A(H   0,C   1,H   4)          109.47  0.000006   -0.00    109.47   
     8. A(H   2,C   1,H   4)          109.47 -0.000007    0.00    109.47   
     9. A(H   3,C   1,H   4)          109.47 -0.000005    0.00    109.47   
    10. A(H   0,C   1,H   2)          109.47  0.000012   -0.00    109.47   
    ----------------------------------------------------------------------------

Geometry step timings:
Preparation and reading OPT file:      0.000 s ( 3.584 %)
Internal coordinates            :      0.000 s ( 3.098 %)
B/P matrices and projection     :      0.000 s ( 7.047 %)
Hessian update/contruction      :      0.001 s (66.829 %)
Making the step                 :      0.000 s ( 3.341 %)
Converting the step to Cartesian:      0.000 s ( 1.458 %)
Storing new data                :      0.000 s ( 3.524 %)
Checking convergence            :      0.000 s ( 3.463 %)
Final printing                  :      0.000 s ( 7.655 %)
Total time                      :      0.002 s

Time for energy+gradient        :      7.373 s
Time for complete geometry iter :      8.597 s

         *************************************************************
         *                GEOMETRY OPTIMIZATION CYCLE   3            *
         *************************************************************
---------------------------------
CARTESIAN COORDINATES (ANGSTROEM)
---------------------------------
  H      0.532023    0.162017    0.941583
  C     -0.000017   -0.000018   -0.000039
  H      0.206388    0.829043   -0.682699
  H      0.336546   -0.937104   -0.452344
  H     -1.075040   -0.054038    0.193298

----------------------------
CARTESIAN COORDINATES (A.U.)
----------------------------
  NO LB      ZA    FRAG     MASS         X           Y           Z
   0 H     1.0000    0     1.008    1.005378    0.306167    1.779335
   1 C     6.0000    0    12.011   -0.000032   -0.000034   -0.000074
   2 H     1.0000    0     1.008    0.390016    1.566665   -1.290114
   3 H     1.0000    0     1.008    0.635980   -1.770870   -0.854805
   4 H     1.0000    0     1.008   -2.031531   -0.102117    0.365281

--------------------------------
INTERNAL COORDINATES (ANGSTROEM)
--------------------------------
 H      0   0   0     0.000000000000     0.00000000     0.00000000
 C      1   0   0     1.093606398448     0.00000000     0.00000000
 H      2   1   0     1.093603750800   109.47112714     0.00000000
 H      2   1   3     1.093610292779   109.47202668   120.00076413
 H      2   1   3     1.093605017970   109.47117073   239.99993766

---------------------------
INTERNAL COORDINATES (A.U.)
---------------------------
 H      0   0   0     0.000000000000     0.00000000     0.00000000
 C      1   0   0     2.066616591370     0.00000000     0.00000000
 H      2   1   0     2.066611588040   109.47112714     0.00000000
 H      2   1   3     2.066623950589   109.47202668   120.00076413
 H      2   1   3     2.066613982646   109.47117073   239.99993766



           ************************************************************
           *        Program running with 4 parallel MPI-processes     *
           *              working on a common directory               *
           ************************************************************
------------------------------------------------------------------------------
                   ___                                                        
                  /   \      - P O W E R E D   B Y -                         
                 /     \                                                     
                 |  |  |   _    _      __       _____    __    __             
                 |  |  |  | |  | |    /  \     |  _  \  |  |  /  |          
                  \  \/   | |  | |   /    \    | | | |  |  | /  /          
                 / \  \   | |__| |  /  /\  \   | |_| |  |  |/  /          
                |  |  |   |  __  | /  /__\  \  |    /   |      \           
                |  |  |   | |  | | |   __   |  |    \   |  |\   \          
                \     /   | |  | | |  |  |  |  | |\  \  |  | \   \       
                 \___/    |_|  |_| |__|  |__|  |_| \__\ |__|  \__/        
                                                                              
                      - O R C A' S   B I G   F R I E N D -                    
[...]
Spin-rotation constants                 ...  NO (   0 nuclei)
Spin-spin couplings                     ...  NO (   0 nuclei,    0 pairs)

Choice of magnetic origin               ... GIAO
Position of magnetic origin             ...     0.000000     0.000000     0.000000

Properties with geometric perturbations:
SCF Hessian                             ... YES
IR spectrum                             ... YES
VCD spectrum                            ...  NO
X-ray spectroscopy properties:
SCF XES/XAS/RIXS spectra                ...  NO

SCF SOC stabilization energy            ...  NO
Diagonal Born-Oppenheimer correction    ...  NO

-------------
DIPOLE MOMENT
-------------

Method             : SCF
Type of density    : Electron Density
Multiplicity       :   1
Irrep              :   0
Energy             :   -39.9848525804025243 Eh
Basis              : AO
                                X                 Y                 Z
Electronic contribution:      0.000003559      -0.000025976      -0.000021152
Nuclear contribution   :      0.000000739       0.000004527       0.000019923
                        -----------------------------------------
Total Dipole Moment    :      0.000004298      -0.000021448      -0.000001229
                        -----------------------------------------
Magnitude (a.u.)       :      0.000021909
Magnitude (Debye)      :      0.000055689



--------------------
Rotational spectrum 
--------------------
 
Rotational constants in cm-1:             5.244052             5.243972             5.243922 
Rotational constants in MHz :        157212.734921        157210.323850        157208.824889 

Dipole components along the rotational axes: 
x,y,z [a.u.] :    -0.000018    -0.000006     0.000010 
x,y,z [Debye]:    -0.000047    -0.000014     0.000026 

 

Dipole moment calculation done in   0.0 sec 

-----------
SCF HESSIAN
-----------

Occupied/Occupied contributions to the Hessian:
   => Occupied/Occupied contributions              ... done (  0.0 sec)
Perturbed density contributions to the Hessian:
   => Perturbed density contributions              ... done (  0.0 sec)
Explicit contributions to the Hessian:
   => Nuclear repulsion Hessian                    ... done (  0.0 sec)
   => HCore and overlap Hessian                    ... done (  0.0 sec)
   => RI-J Hessian                                 ... done (  0.1 sec)
   => COSX Hessian                                 ... done (  0.4 sec)
   => XC-Hessian                                   ... done (  0.2 sec)
   => Explicit contributions done
Dipole derivatives                                 ... done (  0.0 sec)
Mass weighting the Hessian           ... done
Calculating normal modes             ... done
Scaling frequencies                  ... done

-----------------------
VIBRATIONAL FREQUENCIES
-----------------------

Scaling factor for frequencies =  1.000000000  (already applied!)

     0:       0.00 cm**-1
     1:       0.00 cm**-1
     2:       0.00 cm**-1
     3:       0.00 cm**-1
     4:       0.00 cm**-1
     5:       0.00 cm**-1
     6:    1542.39 cm**-1
     7:    1542.41 cm**-1
     8:    1542.55 cm**-1
     9:    1774.99 cm**-1
    10:    1775.05 cm**-1
    11:    3331.13 cm**-1
    12:    3578.99 cm**-1
    13:    3579.05 cm**-1
    14:    3579.07 cm**-1


------------
NORMAL MODES
------------

These modes are the Cartesian displacements weighted by the diagonal matrix
M(i,i)=1/sqrt(m[i]) where m[i] is the mass of the displaced atom
Thus, these vectors are normalized but *not* orthogonal

                  0          1          2          3          4          5    
      0       0.000000   0.000000   0.000000   0.000000   0.000000   0.000000
      1       0.000000   0.000000   0.000000   0.000000   0.000000   0.000000
      2       0.000000   0.000000   0.000000   0.000000   0.000000   0.000000
      3       0.000000   0.000000   0.000000   0.000000   0.000000   0.000000
      4       0.000000   0.000000   0.000000   0.000000   0.000000   0.000000
      5       0.000000   0.000000   0.000000   0.000000   0.000000   0.000000
      6       0.000000   0.000000   0.000000   0.000000   0.000000   0.000000
      7       0.000000   0.000000   0.000000   0.000000   0.000000   0.000000
      8       0.000000   0.000000   0.000000   0.000000   0.000000   0.000000
      9       0.000000   0.000000   0.000000   0.000000   0.000000   0.000000
     10       0.000000   0.000000   0.000000   0.000000   0.000000   0.000000
     11       0.000000   0.000000   0.000000   0.000000   0.000000   0.000000
     12       0.000000   0.000000   0.000000   0.000000   0.000000   0.000000
     13       0.000000   0.000000   0.000000   0.000000   0.000000   0.000000
     14       0.000000   0.000000   0.000000   0.000000   0.000000   0.000000
                  6          7          8          9         10         11    
      0       0.399215   0.329222   0.110563  -0.422739  -0.110955   0.243189
      1       0.082213   0.021671  -0.590052   0.165145  -0.466374   0.074062
      2      -0.150538  -0.279396   0.044700   0.210442   0.142971   0.430398
      3      -0.031627  -0.116977  -0.019381   0.000039   0.000022   0.000000
      4      -0.001594  -0.019638   0.121124  -0.000025   0.000051   0.000015
      5       0.118562  -0.031470  -0.003541  -0.000026   0.000011   0.000010
      6       0.066613   0.555649   0.194420   0.335279  -0.358607   0.094368
      7      -0.349255   0.020161  -0.197597  -0.281706  -0.164030   0.379031
      8      -0.288539   0.217163  -0.309780  -0.240756  -0.307719  -0.312078
      9       0.052880   0.563786  -0.098327  -0.004629   0.475513   0.153946
     10       0.293196   0.127201  -0.056791   0.215902   0.140611  -0.428580
     11      -0.444872   0.169273   0.277025  -0.450888   0.062670  -0.206847
     12      -0.141854  -0.054804   0.024278   0.091627  -0.006217  -0.491505
     13      -0.007159   0.064966  -0.598840  -0.099044   0.489188  -0.024686
     14      -0.528801   0.267950   0.030252   0.481518   0.101944   0.088411
                 12         13         14    
      0      -0.054914  -0.039482  -0.414010
      1      -0.008720  -0.014814  -0.126832
      2      -0.088167  -0.056164  -0.734939
      3      -0.045094  -0.060629   0.056982
      4       0.079339  -0.050857   0.008673
      5       0.025065   0.051903   0.075057
      6      -0.066371   0.137792   0.056144
      7      -0.244110   0.570027   0.206507
      8       0.208789  -0.468480  -0.162940
      9       0.257100  -0.014996   0.064149
     10      -0.719764   0.022796  -0.164168
     11      -0.348531   0.017598  -0.073130
     12       0.401509   0.639116  -0.385260
     13       0.027221   0.027982  -0.018851
     14      -0.070753  -0.111415   0.076657


-----------
IR SPECTRUM
-----------

 Mode   freq       eps      Int      T**2         TX        TY        TZ
       cm**-1   L/(mol*cm) km/mol    a.u.
----------------------------------------------------------------------------
  6:   1542.39   0.002771   14.00  0.000561  ( 0.006099  0.000308 -0.022876)
  7:   1542.41   0.002771   14.00  0.000561  ( 0.022570  0.003786  0.006069)
  8:   1542.55   0.002770   14.00  0.000560  ( 0.003738 -0.023366  0.000686)
  9:   1774.99   0.000000    0.00  0.000000  (-0.000008  0.000008  0.000006)
 10:   1775.05   0.000000    0.00  0.000000  (-0.000001 -0.000011 -0.000001)
 11:   3331.13   0.000000    0.00  0.000000  (-0.000003  0.000000  0.000003)
 12:   3578.99   0.000040    0.20  0.000004  (-0.000892  0.001570  0.000496)
 13:   3579.05   0.000040    0.20  0.000004  (-0.001197 -0.001008  0.001026)
 14:   3579.07   0.000040    0.20  0.000004  ( 0.001127  0.000172  0.001489)

* The epsilon (eps) is given for a Dirac delta lineshape.
** The dipole moment derivative (T) already includes vibrational overlap.

The first frequency considered to be a vibration is 6
The total number of vibrations considered is 9


--------------------------
THERMOCHEMISTRY AT 298.15K
--------------------------

Temperature         ...   298.15 K
Pressure            ...     1.00 atm
Total Mass          ...    16.04 AMU
Quasi RRHO          ...     True
Cut-Off Frequency   ...     1.00 cm^-1

Throughout the following assumptions are being made:
  (1) The electronic state is orbitally nondegenerate
  (2) There are no thermally accessible electronically excited states
  (3) Hindered rotations indicated by low frequency modes are not
      treated as such but are treated as vibrations and this may
      cause some error
  (4) All equations used are the standard statistical mechanics
      equations for an ideal gas
  (5) All vibrations are strictly harmonic

freq.    1542.39  E(vib)   ...       0.00 
freq.    1542.41  E(vib)   ...       0.00 
freq.    1542.55  E(vib)   ...       0.00 
freq.    1774.99  E(vib)   ...       0.00 
freq.    1775.05  E(vib)   ...       0.00 
freq.    3331.13  E(vib)   ...       0.00 
freq.    3578.99  E(vib)   ...       0.00 
freq.    3579.05  E(vib)   ...       0.00 
freq.    3579.07  E(vib)   ...       0.00 

------------
INNER ENERGY
------------

The inner energy is: U= E(el) + E(ZPE) + E(vib) + E(rot) + E(trans)
    E(el)   - is the total energy from the electronic structure calculation
              = E(kin-el) + E(nuc-el) + E(el-el) + E(nuc-nuc)
    E(ZPE)  - the the zero temperature vibrational energy from the frequency calculation
    E(vib)  - the the finite temperature correction to E(ZPE) due to population
              of excited vibrational states
    E(rot)  - is the rotational thermal energy
    E(trans)- is the translational thermal energy

Summary of contributions to the inner energy U:
Electronic energy                ...    -39.98485258 Eh
Zero point energy                ...      0.05067926 Eh      31.80 kcal/mol
Thermal vibrational correction   ...      0.00001544 Eh       0.01 kcal/mol
Thermal rotational correction    ...      0.00141627 Eh       0.89 kcal/mol
Thermal translational correction ...      0.00141627 Eh       0.89 kcal/mol
-----------------------------------------------------------------------
Total thermal energy                    -39.93132534 Eh


Summary of corrections to the electronic energy:
(perhaps to be used in another calculation)
Total thermal correction                  0.00284798 Eh       1.79 kcal/mol
Non-thermal (ZPE) correction              0.05067926 Eh      31.80 kcal/mol
-----------------------------------------------------------------------
Total correction                          0.05352724 Eh      33.59 kcal/mol


--------
ENTHALPY
--------

The enthalpy is H = U + kB*T
                kB is Boltzmann's constant
Total thermal energy              ...    -39.93132534 Eh 
Thermal Enthalpy correction       ...      0.00094421 Eh       0.59 kcal/mol
-----------------------------------------------------------------------
Total Enthalpy                    ...    -39.93038113 Eh


Note: Rotational entropy computed according to Herzberg 
Infrared and Raman Spectra, Chapter V,1, Van Nostrand Reinhold, 1945 
Point Group:  Td, Symmetry Number:  12  
Rotational constants in cm-1:     5.244057     5.243977     5.243927 

Vibrational entropy computed according to the QRRHO of S. Grimme
Chem.Eur.J. 2012 18 9955 using a reference frequency of 100.0 cm-1


-------
ENTROPY
-------

The entropy contributions are T*S = T*(S(el)+S(vib)+S(rot)+S(trans))
     S(el)   - electronic entropy
     S(vib)  - vibrational entropy
     S(rot)  - rotational entropy
     S(trans)- translational entropy
The entropies will be listed as multiplied by the temperature to get
units of energy

Electronic entropy                ...      0.00000000 Eh      0.00 kcal/mol
Vibrational entropy               ...      0.00001746 Eh      0.01 kcal/mol
Rotational entropy                ...      0.00481773 Eh      3.02 kcal/mol
Translational entropy             ...      0.01627961 Eh     10.22 kcal/mol
-----------------------------------------------------------------------
Final entropy term                ...      0.02111480 Eh     13.25 kcal/mol

In case the symmetry of your molecule has not been determined correctly
or in case you have a reason to use a different symmetry number we print 
out the resulting rotational entropy values for sn=1,12:

 non-linear molecules -----------------------------------
|  sn= 1 | S(rot)=       0.00716393 Eh      4.50 kcal/mol|
|  sn= 2 | S(rot)=       0.00650948 Eh      4.08 kcal/mol|
|  sn= 3 | S(rot)=       0.00612664 Eh      3.84 kcal/mol|
|  sn= 4 | S(rot)=       0.00585502 Eh      3.67 kcal/mol|
|  sn= 5 | S(rot)=       0.00564433 Eh      3.54 kcal/mol|
|  sn= 6 | S(rot)=       0.00547219 Eh      3.43 kcal/mol|
|  sn= 7 | S(rot)=       0.00532664 Eh      3.34 kcal/mol|
|  sn= 8 | S(rot)=       0.00520056 Eh      3.26 kcal/mol|
|  sn= 9 | S(rot)=       0.00508935 Eh      3.19 kcal/mol|
|  sn=10 | S(rot)=       0.00498988 Eh      3.13 kcal/mol|
|  sn=11 | S(rot)=       0.00489989 Eh      3.07 kcal/mol|
|  sn=12 | S(rot)=       0.00481773 Eh      3.02 kcal/mol|
 linear molecules ---------------------------------------
|  Dinfh | S(rot)=       0.00376123 Eh      2.36 kcal/mol|
|  Cinfv | S(rot)=       0.00441569 Eh      2.77 kcal/mol|
 --------------------------------------------------------


-------------------
GIBBS FREE ENERGY
-------------------

The Gibbs free energy is G = H - T*S

Total enthalpy                    ...    -39.93038113 Eh 
Total entropy correction          ...     -0.02111480 Eh    -13.25 kcal/mol
-----------------------------------------------------------------------
Final Gibbs free energy         ...    -39.95149593 Eh

For completeness - the Gibbs free energy minus the electronic energy
G-E(el)                           ...      0.03335665 Eh     20.93 kcal/mol


Maximum memory used throughout the entire PROP-calculation: 6.4 MB

--------------------------------
SUGGESTED CITATIONS FOR THIS RUN
--------------------------------

Below you find a list of papers that are relevant to this ORCA run
We neither can nor want to force you to cite these papers, but we appreciate if you do
You receive ORCA, which is the product of decades of hard work by many enthusiastic individuals, for free
The only thing we kindly ask in return is that you cite our papers,
We deeply appreciate it, if you show your appreciation for ORCA by not just citing the generic ORCA reference.

Please note that relegating all ORCA citations to the supporting information does *not* help us.
SI sections are not indexed - citations you put there will not count into any citation statistics
But we need these citations in order to attract the funding resources that allow us to do what we are doing

Therefore, if you are a happy ORCA user, please consider citing a few of the papers listed below in the main body of your paper

In addition to the list printed below, the program has created the file orca.bibtex that contains the list in bibtex format
You can import this file easily into all common literature databanks and citation aid programs

It goes without saying that in many instances, there are alternative algorithms to achieve similar
results as the ones you have gotten from ORCA. It is, of course, also the case that in some instances
ORCA just re-implements algorithms worked out by others. We are fully aware of that and we are also
fully appreciative of our colleagues work. Hence this citation list should not be read as indicating
that the listed papers, which are focused on our own work, are the only ones worth citing. It simply
meant to make it easier for users to cite ORCA specific papers. It is not a substitute for doing your
own literature research and citing the relevant literature in a scientifically appropriate manner.

List of essential papers. We consider these as the minimum necessary citations

  1. Neese, F.
     Software update: the ORCA program system, version 6.0
     WIRES Comput. Molec. Sci. 2025 15(1), e70019
     doi.org/10.1002/wcms.70019

List of papers to cite with high priority. The work reported in these papers was absolutely
necessary for this run to complete.
Our perspective: the developers of density functionals and basis sets usually get cited in chemistry papers
Good! But without the algorithms to do something with them, the functionals or basis sets would not do anything.
Hence, in our opinion, the algorithm design and method developments papers are equally worthy of getting cited

  1. Neese, F.
     An improvement of the resolution of the identity approximation for the formation of the Coulomb matrix
     J. Comp. Chem. 2003 24(14), 1740-1747
     doi.org/10.1002/jcc.10318
  2. Neese, F.; Wennmohs, F.; Hansen, A.; Becker, U.
     Efficient, approximate and parallel Hartree-Fock and hybrid DFT calculations. A 'chain-of-spheres' algorithm for the Hartree-Fock exchange
     Chem. Phys. 2009 356(1-3), 98-109
     doi.org/10.1016/j.chemphys.2008.10.036
  3. Bykov, D.; Petrenko, T.; Izsak, R.; Kossmann, S.; Becker, U.; Valeev, E.; Neese, F.
     Efficient implementation of the analytic second derivatives of Hartree-Fock and hybrid DFT energies: a detailed analysis of different approximations
     Molec. Phys. 2015 113 , 1961-1977
     doi.org/10.1080/00268976.2015.1025114
  4. Helmich-Paris, B.; de Souza, B.; Neese, F.; Izsák, R.
     An improved chain of spheres for exchange algorithm
     J. Chem. Phys. 2021 155(10), 104109
     doi.org/10.1063/5.0058766
  5. Neese, F.
     The SHARK Integral Generation and Digestion System
     J. Comp. Chem. 2022 44(3), 381
     doi.org/10.1002/jcc.26942

List of suggested additional citations. These are papers that are important in the 'surrounding' of 
of this run, or papers that preceded the highly important papers. If you like your results we are grateful for a citation.

  1. Izsak, R.; Neese, F.
     An overlap fitted chain of spheres exchange method
     J. Chem. Phys. 2011 135 , 144105
     doi.org/10.1063/1.3646921
  2. Izsak, R.; Hansen, A.; Neese, F.
     The resolution of identity and chain of spheres approximations for the LPNO-CCSD singles Fock term
     Molec. Phys. 2012 110 , 2413-2417
     doi.org/10.1080/00268976.2012.687466
  3. Neese, F.
     The ORCA program system
     WIRES Comput. Molec. Sci. 2012 2(1), 73-78
     doi.org/10.1002/wcms.81
  4. Izsak, R.; Neese, F.; Klopper, W.
     Robust fitting techniques in the chain of spheres approximation to the Fock exchange: The role of the complementary space
     J. Chem. Phys. 2013 139 , 
     doi.org/10.1063/1.4819264
  5. Neese, F.
     Software update: the ORCA program system, version 4.0
     WIRES Comput. Molec. Sci. 2018 8(1), 1-6
     doi.org/10.1002/wcms.1327
  6. Neese, F.; Wennmohs, F.; Becker, U.; Riplinger, C.
     The ORCA quantum chemistry program package
     J. Chem. Phys. 2020 152(22), 224108
     doi.org/10.1063/5.0004608
  7. Neese, F.
     Software update: The ORCA program system—Version 5.0
     WIRES Comput. Molec. Sci. 2022 12(1), e1606
     doi.org/10.1002/wcms.1606

List of optional additional citations

  1. Neese, F.
     Approximate second-order SCF convergence for spin unrestricted wavefunctions
     Chem. Phys. Lett. 2000 325(1-3), 93-98
     doi.org/10.1016/s0009-2614(00)00662-x

Timings for individual modules:

Sum of individual times          ...       29.981 sec (=   0.500 min)
Startup calculation              ...        5.070 sec (=   0.085 min)  16.9 %
SCF iterations                   ...       13.065 sec (=   0.218 min)  43.6 %
Property integrals               ...        4.708 sec (=   0.078 min)  15.7 %
SCF Response                     ...        1.544 sec (=   0.026 min)   5.2 %
Property calculations            ...        1.883 sec (=   0.031 min)   6.3 %
SCF Gradient evaluation          ...        3.705 sec (=   0.062 min)  12.4 %
Geometry relaxation              ...        0.006 sec (=   0.000 min)   0.0 %
                             ****ORCA TERMINATED NORMALLY****
TOTAL RUN TIME: 0 days 0 hours 0 minutes 35 seconds 229 msec
